{
  "metadata": {
    "title": "Complete Periodic Table Database",
    "author": "Abhishek Agrahari",
    "version": "1.0",
    "totalElements": 118,
    "lastUpdated": "2025-11-18"
  },
  "elements": {
    "1": {
      "atomicNumber": 1,
      "symbol": "H",
      "name": "Hydrogen",
      "atomicMass": 1.008,
      "group": 1,
      "period": 1,
      "block": "s",
      "classification": "Nonmetal",
      "electronConfig": "1s¹",
      "meltingPoint": "-259.14°C",
      "boilingPoint": "-252.87°C",
      "density": "0.00008988 g/cm³",
      "electronegativity": 2.20,
      "atomicRadius": "53 pm",
      "oxidationStates": "+1, -1",
      "phase": "Gas",
      "abundance": "75% (universe)",
      "origin": "Big Bang nucleosynthesis",
      "dailyLife": "Water (H₂O), Fuels, Cleaning products",
      "humanBody": "10% by mass, 60% by atoms",
      "discoverer": "Henry Cavendish",
      "discoveryYear": 1766,
      "isotopes": [
        {"name": "Protium", "neutrons": 0, "abundance": "99.985%", "stable": true},
        {"name": "Deuterium", "neutrons": 1, "abundance": "0.015%", "stable": true},
        {"name": "Tritium", "neutrons": 2, "abundance": "Trace", "stable": false}
      ]
    },
    "2": {
      "atomicNumber": 2,
      "symbol": "He",
      "name": "Helium",
      "atomicMass": 4.003,
      "group": 18,
      "period": 1,
      "block": "s",
      "classification": "Noble Gas",
      "electronConfig": "1s²",
      "meltingPoint": "N/A",
      "boilingPoint": "-268.93°C",
      "density": "0.0001785 g/cm³",
      "electronegativity": 0,
      "atomicRadius": "31 pm",
      "oxidationStates": "0",
      "phase": "Gas",
      "abundance": "24% (universe)",
      "origin": "Big Bang nucleosynthesis, Stellar fusion",
      "dailyLife": "Balloons, MRI machines, Diving gas",
      "humanBody": "Trace amounts",
      "discoverer": "Pierre Janssen",
      "discoveryYear": 1868
    },
    "6": {
      "atomicNumber": 6,
      "symbol": "C",
      "name": "Carbon",
      "atomicMass": 12.011,
      "group": 14,
      "period": 2,
      "block": "p",
      "classification": "Nonmetal",
      "electronConfig": "1s² 2s² 2p²",
      "meltingPoint": "3550°C",
      "boilingPoint": "4827°C",
      "density": "2.267 g/cm³",
      "electronegativity": 2.55,
      "atomicRadius": "67 pm",
      "oxidationStates": "+4, +2, -4",
      "phase": "Solid",
      "abundance": "0.025% (Earth's crust)",
      "origin": "Stellar nucleosynthesis (Triple-alpha process)",
      "dailyLife": "All organic compounds, Plastics, Fuels, Food",
      "humanBody": "18% by mass - Basis of all life",
      "discoverer": "Known since ancient times",
      "discoveryYear": "Prehistoric"
    },
    "8": {
      "atomicNumber": 8,
      "symbol": "O",
      "name": "Oxygen",
      "atomicMass": 15.999,
      "group": 16,
      "period": 2,
      "block": "p",
      "classification": "Nonmetal",
      "electronConfig": "1s² 2s² 2p⁴",
      "meltingPoint": "-218.79°C",
      "boilingPoint": "-182.96°C",
      "density": "0.001429 g/cm³",
      "electronegativity": 3.44,
      "atomicRadius": "48 pm",
      "oxidationStates": "-2, -1",
      "phase": "Gas",
      "abundance": "46% (Earth's crust)",
      "origin": "Stellar nucleosynthesis",
      "dailyLife": "Air we breathe, Water, Combustion",
      "humanBody": "65% by mass - Essential for respiration",
      "discoverer": "Joseph Priestley",
      "discoveryYear": 1774
    },
    "26": {
      "atomicNumber": 26,
      "symbol": "Fe",
      "name": "Iron",
      "atomicMass": 55.845,
      "group": 8,
      "period": 4,
      "block": "d",
      "classification": "Transition Metal",
      "electronConfig": "[Ar] 3d⁶ 4s²",
      "meltingPoint": "1538°C",
      "boilingPoint": "2862°C",
      "density": "7.874 g/cm³",
      "electronegativity": 1.83,
      "atomicRadius": "126 pm",
      "oxidationStates": "+2, +3",
      "phase": "Solid",
      "abundance": "5% (Earth's crust), 35% (Earth's core)",
      "origin": "Supernova nucleosynthesis",
      "dailyLife": "Steel, Construction, Tools, Vehicles",
      "humanBody": "0.006% - Hemoglobin in blood",
      "discoverer": "Known since ancient times",
      "discoveryYear": "~3500 BCE"
    },
    "79": {
      "atomicNumber": 79,
      "symbol": "Au",
      "name": "Gold",
      "atomicMass": 196.967,
      "group": 11,
      "period": 6,
      "block": "d",
      "classification": "Transition Metal",
      "electronConfig": "[Xe] 4f¹⁴ 5d¹⁰ 6s¹",
      "meltingPoint": "1064.18°C",
      "boilingPoint": "2856°C",
      "density": "19.32 g/cm³",
      "electronegativity": 2.54,
      "atomicRadius": "134 pm",
      "oxidationStates": "+1, +3",
      "phase": "Solid",
      "abundance": "0.004 ppm (Earth's crust)",
      "origin": "Supernova nucleosynthesis, Neutron star collisions",
      "dailyLife": "Jewelry, Electronics, Currency, Dentistry",
      "humanBody": "0.0001 mg/kg - Trace amounts",
      "discoverer": "Known since ancient times",
      "discoveryYear": "~6000 BCE"
    },
    "92": {
      "atomicNumber": 92,
      "symbol": "U",
      "name": "Uranium",
      "atomicMass": 238.029,
      "group": 3,
      "period": 7,
      "block": "f",
      "classification": "Actinide",
      "electronConfig": "[Rn] 5f³ 6d¹ 7s²",
      "meltingPoint": "1135°C",
      "boilingPoint": "4131°C",
      "density": "19.05 g/cm³",
      "electronegativity": 1.38,
      "atomicRadius": "156 pm",
      "oxidationStates": "+3, +4, +5, +6",
      "phase": "Solid",
      "abundance": "2.7 ppm (Earth's crust)",
      "origin": "Supernova nucleosynthesis, r-process",
      "dailyLife": "Nuclear power plants, Medical treatments",
      "humanBody": "0.00001 mg/kg - Trace, radioactive",
      "discoverer": "Martin Heinrich Klaproth",
      "discoveryYear": 1789
    }
  }
}



